 Output coordinates in angstroms (scale by  1.889725989 to convert to a.u.)

  No.       Tag          Charge          X              Y              Z
 ---- ---------------- ---------- -------------- -------------- --------------
    1 C                    6.0000    -0.97008936    -2.09385122    -0.01096484
    2 C                    6.0000     0.51680775    -1.81236196     0.07940538
    3 C                    6.0000     0.73311690    -0.36408209     0.48022677
    4 C                    6.0000     0.09412021     0.47914281    -0.59027452
    5 C                    6.0000     0.21485307     1.92867261    -0.33447592
    6 O                    8.0000    -0.53992931     2.46913804     0.44055290
    7 H                    1.0000    -1.56652702    -1.39430960     0.60448104
    8 H                    1.0000    -1.27799585    -2.02233003    -1.08931975
    9 H                    1.0000    -1.13565853    -3.15849775     0.27875335
   10 H                    1.0000     1.02939336    -2.01174951    -0.89375370
   11 H                    1.0000     1.00290438    -2.48122501     0.83509796
   12 H                    1.0000     1.84042527    -0.21153373     0.54526658
   13 H                    1.0000     0.33241835    -0.14497546     1.48056019
   14 H                    1.0000    -0.98396437     0.14351938    -0.64367432
   15 H                    1.0000     0.58120530     0.17765875    -1.56327065
   16 H                    1.0000     0.96438208     2.52521768    -0.82206514

         Total DFT energy =     -271.536708436832

                       DFT Final Molecular Orbital Analysis
                       ------------------------------------

 Vector    1  Occ=2.000000D+00  E=-1.964070D+01

 Vector    2  Occ=2.000000D+00  E=-1.063519D+01

 Vector    3  Occ=2.000000D+00  E=-1.055358D+01

 Vector    4  Occ=2.000000D+00  E=-1.055174D+01

 Vector    5  Occ=2.000000D+00  E=-1.054778D+01

 Vector    6  Occ=2.000000D+00  E=-1.053975D+01

 Vector    7  Occ=2.000000D+00  E=-1.192398D+00

 Vector    8  Occ=2.000000D+00  E=-9.258619D-01

 Vector    9  Occ=2.000000D+00  E=-8.396957D-01

 Vector   10  Occ=2.000000D+00  E=-7.563181D-01

 Vector   11  Occ=2.000000D+00  E=-6.793227D-01

 Vector   12  Occ=2.000000D+00  E=-6.475737D-01

 Vector   13  Occ=2.000000D+00  E=-5.786845D-01

 Vector   14  Occ=2.000000D+00  E=-5.476590D-01

 Vector   15  Occ=2.000000D+00  E=-5.208391D-01

 Vector   16  Occ=2.000000D+00  E=-4.958097D-01

 Vector   17  Occ=2.000000D+00  E=-4.792932D-01

 Vector   18  Occ=2.000000D+00  E=-4.714664D-01

 Vector   19  Occ=2.000000D+00  E=-4.423843D-01

 Vector   20  Occ=2.000000D+00  E=-4.240049D-01

 Vector   21  Occ=2.000000D+00  E=-4.005262D-01

 Vector   22  Occ=2.000000D+00  E=-3.875871D-01

 Vector   23  Occ=2.000000D+00  E=-3.806936D-01

 Vector   24  Occ=2.000000D+00  E=-3.209503D-01

 Vector   25  Occ=0.000000D+00  E= 2.113859D-02

 Vector   26  Occ=0.000000D+00  E= 1.230493D-01

 Vector   27  Occ=0.000000D+00  E= 1.469262D-01

 Vector   28  Occ=0.000000D+00  E= 1.553228D-01

 Vector   29  Occ=0.000000D+00  E= 1.705223D-01

 Vector   30  Occ=0.000000D+00  E= 1.863290D-01

 Vector   31  Occ=0.000000D+00  E= 1.999436D-01

 Vector   32  Occ=0.000000D+00  E= 2.078525D-01

 Vector   33  Occ=0.000000D+00  E= 2.203271D-01

 Vector   34  Occ=0.000000D+00  E= 2.323281D-01

 Vector   35  Occ=0.000000D+00  E= 2.618584D-01

 Vector   36  Occ=0.000000D+00  E= 2.778641D-01

 Vector   37  Occ=0.000000D+00  E= 2.915820D-01

 Vector   38  Occ=0.000000D+00  E= 3.152732D-01

 Vector   39  Occ=0.000000D+00  E= 3.372375D-01

 Vector   40  Occ=0.000000D+00  E= 3.588306D-01

 Vector   41  Occ=0.000000D+00  E= 5.707349D-01

 Vector   42  Occ=0.000000D+00  E= 5.905888D-01

 Vector   43  Occ=0.000000D+00  E= 6.094796D-01

 Vector   44  Occ=0.000000D+00  E= 6.210905D-01

 Vector   45  Occ=0.000000D+00  E= 6.405250D-01

 Vector   46  Occ=0.000000D+00  E= 6.667823D-01

 Vector   47  Occ=0.000000D+00  E= 7.222068D-01

 Vector   48  Occ=0.000000D+00  E= 7.310814D-01

 Vector   49  Occ=0.000000D+00  E= 7.390587D-01

 Vector   50  Occ=0.000000D+00  E= 7.546744D-01

 Vector   51  Occ=0.000000D+00  E= 7.672869D-01

 Vector   52  Occ=0.000000D+00  E= 7.742927D-01

 Vector   53  Occ=0.000000D+00  E= 8.682465D-01

 Vector   54  Occ=0.000000D+00  E= 8.913212D-01

 Vector   55  Occ=0.000000D+00  E= 9.048510D-01

 Vector   56  Occ=0.000000D+00  E= 9.113463D-01

 Vector   57  Occ=0.000000D+00  E= 9.621933D-01

 Vector   58  Occ=0.000000D+00  E= 9.649897D-01

 Vector   59  Occ=0.000000D+00  E= 9.852375D-01

 Vector   60  Occ=0.000000D+00  E= 1.013315D+00

 Vector   61  Occ=0.000000D+00  E= 1.016670D+00

 Vector   62  Occ=0.000000D+00  E= 1.021970D+00

 Vector   63  Occ=0.000000D+00  E= 1.034348D+00

 Vector   64  Occ=0.000000D+00  E= 1.038164D+00

 Vector   65  Occ=0.000000D+00  E= 1.081020D+00

 Vector   66  Occ=0.000000D+00  E= 1.093804D+00

 Vector   67  Occ=0.000000D+00  E= 1.156396D+00

 Vector   68  Occ=0.000000D+00  E= 1.204265D+00

 Vector   69  Occ=0.000000D+00  E= 1.243514D+00

 Vector   70  Occ=0.000000D+00  E= 1.335649D+00

 Vector   71  Occ=0.000000D+00  E= 1.410681D+00

 Vector   72  Occ=0.000000D+00  E= 1.552288D+00

 Vector   73  Occ=0.000000D+00  E= 1.674972D+00

 Vector   74  Occ=0.000000D+00  E= 1.883716D+00

     Multipole analysis of the density
     ---------------------------------

     L   x y z        total         alpha         beta         nuclear
     -   - - -        -----         -----         ----         -------
     0   0 0 0     -0.000000    -24.000000    -24.000000     48.000000

     1   1 0 0      0.609992      0.304996      0.304996      0.000000
     1   0 1 0     -0.822019     -0.411010     -0.411010     -0.000000
     1   0 0 1     -0.578795     -0.289397     -0.289397      0.000000

     2   2 0 0    -28.913410    -61.438002    -61.438002     93.962594
     2   1 1 0      2.731869     -3.658205     -3.658205     10.048279
     2   1 0 1      0.409367     -0.203803     -0.203803      0.816972
     2   0 2 0    -32.934312   -287.843248   -287.843248    542.752184
     2   0 1 1     -2.844512      0.738880      0.738880     -4.322272

 Total times  cpu:       43.4s     wall:        7.6s
