 Output coordinates in angstroms (scale by  1.889725989 to convert to a.u.)

  No.       Tag          Charge          X              Y              Z
 ---- ---------------- ---------- -------------- -------------- --------------
    1 O                    8.0000     0.00000000     0.00000000     0.11089659
    2 H                    1.0000    -0.78378469     0.00000000    -0.44358637
    3 H                    1.0000     0.78378469     0.00000000    -0.44358637

         Total DFT energy =      -76.349890775595

                       DFT Final Molecular Orbital Analysis
                       ------------------------------------

 Vector    1  Occ=2.000000D+00  E=-1.961996D+01  Symmetry=a1

 Vector    2  Occ=2.000000D+00  E=-1.129504D+00  Symmetry=a1

 Vector    3  Occ=2.000000D+00  E=-6.098201D-01  Symmetry=b1

 Vector    4  Occ=2.000000D+00  E=-4.287372D-01  Symmetry=a1

 Vector    5  Occ=2.000000D+00  E=-3.750543D-01  Symmetry=b2

 Vector    6  Occ=0.000000D+00  E= 1.094074D-01  Symmetry=a1

 Vector    7  Occ=0.000000D+00  E= 2.006207D-01  Symmetry=b1

 Vector    8  Occ=0.000000D+00  E= 9.009244D-01  Symmetry=b1

 Vector    9  Occ=0.000000D+00  E= 9.448161D-01  Symmetry=a1

 Vector   10  Occ=0.000000D+00  E= 9.731619D-01  Symmetry=b2

 Vector   11  Occ=0.000000D+00  E= 1.014312D+00  Symmetry=a1

 Vector   12  Occ=0.000000D+00  E= 1.152877D+00  Symmetry=b1

 Vector   13  Occ=0.000000D+00  E= 1.461159D+00  Symmetry=a1

     Multipole analysis of the density
     ---------------------------------

     L   x y z        total         alpha         beta         nuclear
     -   - - -        -----         -----         ----         -------
     0   0 0 0     -0.000000     -5.000000     -5.000000     10.000000

     1   1 0 0     -0.000000      0.000000      0.000000     -0.000000
     1   0 1 0     -0.000000     -0.000000     -0.000000      0.000000
     1   0 0 1     -0.971804     -0.485902     -0.485902      0.000000

     2   2 0 0     -2.997945     -3.692743     -3.692743      4.387541
     2   1 1 0      0.000000      0.000000      0.000000      0.000000
     2   1 0 1      0.000000      0.000000      0.000000      0.000000
     2   0 2 0     -5.356147     -2.678074     -2.678074      0.000000
     2   0 1 1     -0.000000     -0.000000     -0.000000      0.000000

 Total times  cpu:        2.9s     wall:        0.9s
