 Output coordinates in angstroms (scale by  1.889725989 to convert to a.u.)

  No.       Tag          Charge          X              Y              Z
 ---- ---------------- ---------- -------------- -------------- --------------
    1 C                    6.0000    -0.77746121    -0.04893396    -0.57081118
    2 C                    6.0000     0.20112109    -0.57931118     0.40050066
    3 C                    6.0000     1.54995560     0.08019170     0.12365520
    4 C                    6.0000     1.36679873     1.51570960     0.58972700
    5 C                    6.0000     0.37628637     2.17928056    -0.30038077
    6 C                    6.0000    -0.45969199     1.29804735    -1.13044416
    7 O                    8.0000    -2.04939177    -0.03769439     0.04509086
    8 C                    6.0000    -0.43996009     3.14556135     0.56868375
    9 C                    6.0000     0.89171603    -2.56449546    -0.96576139
   10 C                    6.0000     0.40261178    -2.06342685     0.35394778
   11 C                    6.0000    -0.82531927    -2.81436623     0.83407315
   12 H                    1.0000    -0.88187476    -0.77745073    -1.41460862
   13 H                    1.0000    -0.14590233    -0.32871111     1.43207003
   14 H                    1.0000     1.63566457     0.12622461    -0.98471024
   15 H                    1.0000     2.38087807    -0.43005550     0.61546171
   16 H                    1.0000     2.35131265     2.00539567     0.61964164
   17 H                    1.0000     1.01203778     1.44436462     1.65494931
   18 H                    1.0000     0.95983563     2.86050681    -0.98972179
   19 H                    1.0000    -1.44964349     1.81866384    -1.30278825
   20 H                    1.0000    -0.03290726     1.17818956    -2.15298067
   21 H                    1.0000    -2.27658427     0.87759568     0.27348668
   22 H                    1.0000    -0.64649887     2.72587214     1.55463136
   23 H                    1.0000    -1.34798388     3.48784154     0.03858275
   24 H                    1.0000     0.17899251     4.07050425     0.74364464
   25 H                    1.0000     1.74381238    -3.29737683    -0.85059753
   26 H                    1.0000     0.07574327    -3.17958702    -1.43565482
   27 H                    1.0000     1.25787392    -1.78231993    -1.64369047
   28 H                    1.0000     1.20698667    -2.29856963     1.10909207
   29 H                    1.0000    -0.77766460    -3.85774589     0.43362727
   30 H                    1.0000    -0.81756900    -2.93731764     1.94875646
   31 H                    1.0000    -1.74771702    -2.29401057     0.57094128

         Total DFT energy =     -467.939327470851

                       DFT Final Molecular Orbital Analysis
                       ------------------------------------

 Vector    1  Occ=2.000000D+00  E=-1.961882D+01

 Vector   60  Occ=0.000000D+00  E= 2.408182D-01

 Vector   61  Occ=0.000000D+00  E= 2.471645D-01

 Vector   62  Occ=0.000000D+00  E= 2.575974D-01

 Vector   63  Occ=0.000000D+00  E= 2.609681D-01

 Vector   64  Occ=0.000000D+00  E= 2.766559D-01

 Vector   65  Occ=0.000000D+00  E= 2.858794D-01

 Vector   66  Occ=0.000000D+00  E= 2.979053D-01

 Vector   67  Occ=0.000000D+00  E= 3.033007D-01

 Vector   68  Occ=0.000000D+00  E= 3.153121D-01

 Vector   69  Occ=0.000000D+00  E= 3.328221D-01

 Vector   70  Occ=0.000000D+00  E= 3.409465D-01

 Vector   71  Occ=0.000000D+00  E= 3.468757D-01

 Vector   72  Occ=0.000000D+00  E= 3.619428D-01

 Vector   73  Occ=0.000000D+00  E= 3.950516D-01

 Vector   74  Occ=0.000000D+00  E= 4.117520D-01

 Vector   75  Occ=0.000000D+00  E= 4.204367D-01

 Vector   76  Occ=0.000000D+00  E= 5.773741D-01

 Vector   77  Occ=0.000000D+00  E= 5.947712D-01

 Vector   78  Occ=0.000000D+00  E= 6.042025D-01

 Vector   79  Occ=0.000000D+00  E= 6.121887D-01

 Vector   80  Occ=0.000000D+00  E= 6.273474D-01

 Vector   81  Occ=0.000000D+00  E= 6.463868D-01

 Vector   82  Occ=0.000000D+00  E= 6.628511D-01

 Vector   83  Occ=0.000000D+00  E= 6.716933D-01

 Vector   84  Occ=0.000000D+00  E= 6.799371D-01

 Vector   85  Occ=0.000000D+00  E= 7.051174D-01

 Vector   86  Occ=0.000000D+00  E= 7.181733D-01

 Vector   87  Occ=0.000000D+00  E= 7.298823D-01

 Vector   88  Occ=0.000000D+00  E= 7.433059D-01

 Vector   89  Occ=0.000000D+00  E= 7.553257D-01

 Vector   90  Occ=0.000000D+00  E= 7.810358D-01

 Vector   91  Occ=0.000000D+00  E= 7.882178D-01

 Vector   92  Occ=0.000000D+00  E= 7.976142D-01

 Vector   93  Occ=0.000000D+00  E= 8.034349D-01

 Vector   94  Occ=0.000000D+00  E= 8.253741D-01

 Vector   95  Occ=0.000000D+00  E= 8.456574D-01

 Vector   96  Occ=0.000000D+00  E= 8.548433D-01

 Vector   97  Occ=0.000000D+00  E= 8.667979D-01

 Vector   98  Occ=0.000000D+00  E= 8.847119D-01

 Vector   99  Occ=0.000000D+00  E= 8.927068D-01

 Vector  100  Occ=0.000000D+00  E= 9.088601D-01

 Vector  101  Occ=0.000000D+00  E= 9.197004D-01

 Vector  102  Occ=0.000000D+00  E= 9.341139D-01

 Vector  103  Occ=0.000000D+00  E= 9.405295D-01

 Vector  104  Occ=0.000000D+00  E= 9.532674D-01

 Vector  105  Occ=0.000000D+00  E= 9.610176D-01

 Vector  106  Occ=0.000000D+00  E= 9.668846D-01

 Vector  107  Occ=0.000000D+00  E= 9.830556D-01

 Vector  108  Occ=0.000000D+00  E= 9.900907D-01

 Vector  109  Occ=0.000000D+00  E= 9.975051D-01

 Vector  110  Occ=0.000000D+00  E= 1.002595D+00

 Vector  111  Occ=0.000000D+00  E= 1.013340D+00

 Vector  112  Occ=0.000000D+00  E= 1.019380D+00

 Vector  113  Occ=0.000000D+00  E= 1.020877D+00

 Vector  114  Occ=0.000000D+00  E= 1.028418D+00

 Vector  115  Occ=0.000000D+00  E= 1.045471D+00

 Vector  116  Occ=0.000000D+00  E= 1.053599D+00

 Vector  117  Occ=0.000000D+00  E= 1.061561D+00

 Vector  118  Occ=0.000000D+00  E= 1.066948D+00

 Vector  119  Occ=0.000000D+00  E= 1.072430D+00

 Vector  120  Occ=0.000000D+00  E= 1.088552D+00

 Vector  121  Occ=0.000000D+00  E= 1.119887D+00

 Vector  122  Occ=0.000000D+00  E= 1.152180D+00

 Vector  123  Occ=0.000000D+00  E= 1.196912D+00

 Vector  124  Occ=0.000000D+00  E= 1.206287D+00

 Vector  125  Occ=0.000000D+00  E= 1.241040D+00

 Vector  126  Occ=0.000000D+00  E= 1.256868D+00

 Vector  127  Occ=0.000000D+00  E= 1.269731D+00

 Vector  128  Occ=0.000000D+00  E= 1.319775D+00

 Vector  129  Occ=0.000000D+00  E= 1.368740D+00

 Vector  130  Occ=0.000000D+00  E= 1.419408D+00

 Vector  131  Occ=0.000000D+00  E= 1.474449D+00

 Vector  132  Occ=0.000000D+00  E= 1.509112D+00

 Vector  133  Occ=0.000000D+00  E= 1.571116D+00

 Vector  134  Occ=0.000000D+00  E= 1.637349D+00

 Vector  135  Occ=0.000000D+00  E= 1.682118D+00

 Vector  136  Occ=0.000000D+00  E= 1.817499D+00

 Vector  137  Occ=0.000000D+00  E= 1.965218D+00

 Vector  138  Occ=0.000000D+00  E= 2.144801D+00

 Vector  139  Occ=0.000000D+00  E= 2.190774D+00

     Multipole analysis of the density
     ---------------------------------

     L   x y z        total         alpha         beta         nuclear
     -   - - -        -----         -----         ----         -------
     0   0 0 0     -0.000000    -44.000000    -44.000000     88.000000

     1   1 0 0      0.512137      0.256069      0.256069      0.000000
     1   0 1 0      0.763867      0.381934      0.381934     -0.000000
     1   0 0 1     -0.137505     -0.068753     -0.068753     -0.000000

     2   2 0 0    -56.115378   -229.438352   -229.438352    402.761325
     2   1 1 0     -2.861300      1.382106      1.382106     -5.625511
     2   1 0 1      0.077369      1.595884      1.595884     -3.114399
     2   0 2 0    -52.612650   -635.911667   -635.911667   1219.210683
     2   0 1 1     -0.147342     -2.569425     -2.569425      4.991507

 Total times  cpu:      126.3s     wall:       32.0s
