 Output coordinates in angstroms (scale by  1.889725989 to convert to a.u.)

  No.       Tag          Charge          X              Y              Z
 ---- ---------------- ---------- -------------- -------------- --------------
    1 C                    6.0000     3.44929961     2.50119812    -0.59555024
    2 C                    6.0000    -3.26157380     2.87272496    -0.29546362
    3 C                    6.0000     2.55707607     2.09974408    -1.55545066
    4 C                    6.0000     3.25634969     2.19893470     0.74519439
    5 C                    6.0000    -2.45699274     3.06391462     0.80258776
    6 C                    6.0000    -3.03764841     1.84166588    -1.17156041
    7 C                    6.0000     1.43199632     1.37718025    -1.22836798
    8 C                    6.0000     2.12403224     1.47674162     1.03812332
    9 C                    6.0000    -1.40940067     2.18977808     1.00495911
   10 C                    6.0000    -1.98825748     0.99070623    -0.94012714
   11 C                    6.0000    -0.83494825    -2.76274393     1.30197115
   12 C                    6.0000    -1.21013443    -2.92713157    -1.08428157
   13 C                    6.0000     0.18810839    -3.80426025     0.88296175
   14 C                    6.0000     0.21416833    -3.35340960    -1.41548198
   15 C                    6.0000     1.26885312    -1.82099521     0.06935273
   16 C                    6.0000    -1.13632041    -1.92589930     0.07055453
   17 C                    6.0000     1.21746560     1.06306217     0.09140677
   18 C                    6.0000    -1.15151485     1.12574091     0.13234590
   19 C                    6.0000     0.03461308    -1.01332329    -0.27460601
   20 C                    6.0000    -0.00617975     0.27470801     0.46088587
   21 N                    7.0000     0.98698126    -3.24327708    -0.18602844
   22 O                    8.0000     0.02999918     0.09378499     1.83385599
   23 H                    1.0000     4.35425633     3.07976555    -0.83515210
   24 H                    1.0000    -4.07932079     3.57184205    -0.43624411
   25 H                    1.0000     2.73553797     2.35220890    -2.59686069
   26 H                    1.0000     3.94301734     2.50436966     1.51340726
   27 H                    1.0000    -2.65861399     3.89540925     1.48414008
   28 H                    1.0000    -3.65340718     1.67194273    -2.03639229
   29 H                    1.0000     0.71932668     1.05633260    -2.00669745
   30 H                    1.0000     1.97238861     1.23738030     2.08968614
   31 H                    1.0000    -0.79823266     2.37229941     1.87810551
   32 H                    1.0000    -1.79642736     0.17524327    -1.62133368
   33 H                    1.0000    -0.41820428    -2.19241218     2.12630795
   34 H                    1.0000    -1.78905385    -3.21239075     1.61955931
   35 H                    1.0000    -1.75270582    -3.80698351    -0.69355553
   36 H                    1.0000    -1.73513050    -2.50063129    -1.95716108
   37 H                    1.0000    -0.36201126    -4.68047548     0.51535159
   38 H                    1.0000     0.88239674    -4.05636979     1.71474385
   39 H                    1.0000     0.65205736    -2.73480775    -2.21597867
   40 H                    1.0000     0.24907661    -4.41175605    -1.73117362
   41 H                    1.0000     2.12264023    -1.57423655    -0.59701558
   42 H                    1.0000     1.60199176    -1.67277961     1.10085881
   43 H                    1.0000    -2.08488587    -1.37978275     0.16401188
   44 H                    1.0000     0.07549356    -0.83883977    -1.36491664
   45 H                    1.0000    -0.82300186     0.28731249     2.28093800

         Total DFT energy =     -905.293769446658

                       DFT Final Molecular Orbital Analysis
                       ------------------------------------

 Vector    1  Occ=2.000000D+00  E=-1.963913D+01

 Vector  165  Occ=0.000000D+00  E= 7.744641D-01

 Vector  166  Occ=0.000000D+00  E= 7.881308D-01

 Vector  167  Occ=0.000000D+00  E= 8.021407D-01

 Vector  168  Occ=0.000000D+00  E= 8.089873D-01

 Vector  169  Occ=0.000000D+00  E= 8.306720D-01

 Vector  170  Occ=0.000000D+00  E= 8.314466D-01

 Vector  171  Occ=0.000000D+00  E= 8.483757D-01

 Vector  172  Occ=0.000000D+00  E= 8.588588D-01

 Vector  173  Occ=0.000000D+00  E= 8.831939D-01

 Vector  174  Occ=0.000000D+00  E= 8.960022D-01

 Vector  175  Occ=0.000000D+00  E= 9.046544D-01

 Vector  176  Occ=0.000000D+00  E= 9.211993D-01

 Vector  177  Occ=0.000000D+00  E= 9.268585D-01

 Vector  178  Occ=0.000000D+00  E= 9.297825D-01

 Vector  179  Occ=0.000000D+00  E= 9.316746D-01

 Vector  180  Occ=0.000000D+00  E= 9.365978D-01

 Vector  181  Occ=0.000000D+00  E= 9.415542D-01

 Vector  182  Occ=0.000000D+00  E= 9.430789D-01

 Vector  183  Occ=0.000000D+00  E= 9.482605D-01

 Vector  184  Occ=0.000000D+00  E= 9.542370D-01

 Vector  185  Occ=0.000000D+00  E= 9.558241D-01

 Vector  186  Occ=0.000000D+00  E= 9.646521D-01

 Vector  187  Occ=0.000000D+00  E= 9.695432D-01

 Vector  188  Occ=0.000000D+00  E= 9.764401D-01

 Vector  189  Occ=0.000000D+00  E= 9.837207D-01

 Vector  190  Occ=0.000000D+00  E= 9.955125D-01

 Vector  191  Occ=0.000000D+00  E= 1.001281D+00

 Vector  192  Occ=0.000000D+00  E= 1.007513D+00

 Vector  193  Occ=0.000000D+00  E= 1.015007D+00

 Vector  194  Occ=0.000000D+00  E= 1.025617D+00

 Vector  195  Occ=0.000000D+00  E= 1.031467D+00

 Vector  196  Occ=0.000000D+00  E= 1.041529D+00

 Vector  197  Occ=0.000000D+00  E= 1.048166D+00

 Vector  198  Occ=0.000000D+00  E= 1.056250D+00

 Vector  199  Occ=0.000000D+00  E= 1.063569D+00

 Vector  200  Occ=0.000000D+00  E= 1.066927D+00

 Vector  201  Occ=0.000000D+00  E= 1.073037D+00

 Vector  202  Occ=0.000000D+00  E= 1.086319D+00

 Vector  203  Occ=0.000000D+00  E= 1.093368D+00

 Vector  204  Occ=0.000000D+00  E= 1.100935D+00

 Vector  205  Occ=0.000000D+00  E= 1.107539D+00

 Vector  206  Occ=0.000000D+00  E= 1.123681D+00

 Vector  207  Occ=0.000000D+00  E= 1.131006D+00

 Vector  208  Occ=0.000000D+00  E= 1.146686D+00

 Vector  209  Occ=0.000000D+00  E= 1.165912D+00

 Vector  210  Occ=0.000000D+00  E= 1.177977D+00

 Vector  211  Occ=0.000000D+00  E= 1.189630D+00

 Vector  212  Occ=0.000000D+00  E= 1.212629D+00

 Vector  213  Occ=0.000000D+00  E= 1.221674D+00

 Vector  214  Occ=0.000000D+00  E= 1.225558D+00

 Vector  215  Occ=0.000000D+00  E= 1.245228D+00

 Vector  216  Occ=0.000000D+00  E= 1.253544D+00

 Vector  217  Occ=0.000000D+00  E= 1.264276D+00

 Vector  218  Occ=0.000000D+00  E= 1.279696D+00

 Vector  219  Occ=0.000000D+00  E= 1.286326D+00

 Vector  220  Occ=0.000000D+00  E= 1.313958D+00

 Vector  221  Occ=0.000000D+00  E= 1.333268D+00

 Vector  222  Occ=0.000000D+00  E= 1.357228D+00

 Vector  223  Occ=0.000000D+00  E= 1.364646D+00

 Vector  224  Occ=0.000000D+00  E= 1.404392D+00

 Vector  225  Occ=0.000000D+00  E= 1.441949D+00

 Vector  226  Occ=0.000000D+00  E= 1.472815D+00

 Vector  227  Occ=0.000000D+00  E= 1.491330D+00

 Vector  228  Occ=0.000000D+00  E= 1.518245D+00

 Vector  229  Occ=0.000000D+00  E= 1.527951D+00

 Vector  230  Occ=0.000000D+00  E= 1.544664D+00

 Vector  231  Occ=0.000000D+00  E= 1.549703D+00

 Vector  232  Occ=0.000000D+00  E= 1.574358D+00

 Vector  233  Occ=0.000000D+00  E= 1.603302D+00

 Vector  234  Occ=0.000000D+00  E= 1.614120D+00

 Vector  235  Occ=0.000000D+00  E= 1.643072D+00

 Vector  236  Occ=0.000000D+00  E= 1.768964D+00

 Vector  237  Occ=0.000000D+00  E= 1.790852D+00

 Vector  238  Occ=0.000000D+00  E= 1.900921D+00

 Vector  239  Occ=0.000000D+00  E= 1.975329D+00

 Vector  240  Occ=0.000000D+00  E= 1.985607D+00

 Vector  241  Occ=0.000000D+00  E= 2.078873D+00

 Vector  242  Occ=0.000000D+00  E= 2.156351D+00

 Vector  243  Occ=0.000000D+00  E= 2.408912D+00

 Vector  244  Occ=0.000000D+00  E= 2.549772D+00

     Multipole analysis of the density
     ---------------------------------

     L   x y z        total         alpha         beta         nuclear
     -   - - -        -----         -----         ----         -------
     0   0 0 0     -0.000000    -79.000000    -79.000000    158.000000

     1   1 0 0     -1.079210     -0.539605     -0.539605      0.000000
     1   0 1 0      0.625023      0.312512      0.312512     -0.000000
     1   0 0 1     -0.047294     -0.023647     -0.023647     -0.000000

     2   2 0 0    -95.510660  -1064.589795  -1064.589795   2033.668930
     2   1 1 0      3.382850     -6.499439     -6.499439     16.381728
     2   1 0 1      0.233772     -2.590768     -2.590768      5.415307
     2   0 2 0    -99.555517  -1542.741029  -1542.741029   2985.926541
     2   0 1 1      1.747913     -2.045112     -2.045112      5.838137

 Total times  cpu:      343.9s     wall:      130.4s
