 Output coordinates in angstroms (scale by  1.889725989 to convert to a.u.)

  No.       Tag          Charge          X              Y              Z
 ---- ---------------- ---------- -------------- -------------- --------------
    1 O                    8.0000     1.58297055     2.53420122    -0.46629188
    2 O                    8.0000    -0.21217880     3.15089271     0.75656847
    3 O                    8.0000     1.25879514    -2.41195822     0.70426872
    4 N                    7.0000    -1.81413586     1.18413305     0.13774537
    5 N                    7.0000    -0.32204700    -3.83667265    -0.16597660
    6 C                    6.0000    -0.49743632     1.15979947    -0.46805592
    7 C                    6.0000     0.23740972    -0.07560667     0.01243545
    8 C                    6.0000    -0.53218801    -1.30849380    -0.38968723
    9 C                    6.0000     0.29418785     2.33368580    -0.02576182
   10 C                    6.0000     0.17268311    -2.53047522     0.07214185
   11 H                    1.0000     1.89491650     2.07881480    -1.31468679
   12 H                    1.0000    -1.78450508     0.82792304     1.11253481
   13 H                    1.0000    -2.13567643     2.19596529     0.10327564
   14 H                    1.0000    -0.18913472    -4.54433239     0.58863789
   15 H                    1.0000    -0.79619324    -4.05280616    -1.06881526
   16 H                    1.0000    -0.56964293     1.17442731    -1.55839588
   17 H                    1.0000     1.23432885    -0.13745173    -0.49403118
   18 H                    1.0000     0.42107919    -0.06665482     1.08913615
   19 H                    1.0000    -0.66535160    -1.34500377    -1.48840397
   20 H                    1.0000    -1.54117366    -1.22164759     0.06557060

         Total DFT energy =     -531.316570354701

                       DFT Final Molecular Orbital Analysis
                       ------------------------------------

 Vector    1  Occ=2.000000D+00  E=-1.969468D+01

 Vector   31  Occ=2.000000D+00  E=-4.465477D-01

 Vector   32  Occ=2.000000D+00  E=-4.437516D-01

 Vector   33  Occ=2.000000D+00  E=-4.267146D-01

 Vector   34  Occ=2.000000D+00  E=-4.128861D-01

 Vector   35  Occ=2.000000D+00  E=-3.863152D-01

 Vector   36  Occ=2.000000D+00  E=-3.550850D-01

 Vector   37  Occ=2.000000D+00  E=-3.368566D-01

 Vector   38  Occ=2.000000D+00  E=-3.229821D-01

 Vector   39  Occ=2.000000D+00  E=-3.096254D-01

 Vector   40  Occ=0.000000D+00  E= 2.777451D-02

 Vector   41  Occ=0.000000D+00  E= 3.542677D-02

 Vector   42  Occ=0.000000D+00  E= 6.910154D-02

 Vector   43  Occ=0.000000D+00  E= 1.008655D-01

 Vector   44  Occ=0.000000D+00  E= 1.163091D-01

 Vector   45  Occ=0.000000D+00  E= 1.460860D-01

 Vector   46  Occ=0.000000D+00  E= 1.646079D-01

 Vector   47  Occ=0.000000D+00  E= 1.741646D-01

 Vector   48  Occ=0.000000D+00  E= 1.942389D-01

 Vector   49  Occ=0.000000D+00  E= 1.981324D-01

 Vector   50  Occ=0.000000D+00  E= 2.010526D-01

 Vector   51  Occ=0.000000D+00  E= 2.271039D-01

 Vector   52  Occ=0.000000D+00  E= 2.499746D-01

 Vector   53  Occ=0.000000D+00  E= 2.519485D-01

 Vector   54  Occ=0.000000D+00  E= 2.813694D-01

 Vector   55  Occ=0.000000D+00  E= 2.941310D-01

 Vector   56  Occ=0.000000D+00  E= 3.014989D-01

 Vector   57  Occ=0.000000D+00  E= 3.670164D-01

 Vector   58  Occ=0.000000D+00  E= 4.173332D-01

 Vector   59  Occ=0.000000D+00  E= 4.301134D-01

 Vector   60  Occ=0.000000D+00  E= 4.485370D-01

 Vector   61  Occ=0.000000D+00  E= 5.585144D-01

 Vector   62  Occ=0.000000D+00  E= 5.944772D-01

 Vector   63  Occ=0.000000D+00  E= 6.001433D-01

 Vector   64  Occ=0.000000D+00  E= 6.204289D-01

 Vector   65  Occ=0.000000D+00  E= 6.402647D-01

 Vector   66  Occ=0.000000D+00  E= 6.572870D-01

 Vector   67  Occ=0.000000D+00  E= 6.864574D-01

 Vector   68  Occ=0.000000D+00  E= 7.043009D-01

 Vector   69  Occ=0.000000D+00  E= 7.224349D-01

 Vector   70  Occ=0.000000D+00  E= 7.281384D-01

 Vector   71  Occ=0.000000D+00  E= 7.396063D-01

 Vector   72  Occ=0.000000D+00  E= 7.526898D-01

 Vector   73  Occ=0.000000D+00  E= 7.682824D-01

 Vector   74  Occ=0.000000D+00  E= 7.865092D-01

 Vector   75  Occ=0.000000D+00  E= 7.975370D-01

 Vector   76  Occ=0.000000D+00  E= 8.245388D-01

 Vector   77  Occ=0.000000D+00  E= 8.367751D-01

 Vector   78  Occ=0.000000D+00  E= 8.659921D-01

 Vector   79  Occ=0.000000D+00  E= 8.783069D-01

 Vector   80  Occ=0.000000D+00  E= 9.167338D-01

 Vector   81  Occ=0.000000D+00  E= 9.342973D-01

 Vector   82  Occ=0.000000D+00  E= 9.439603D-01

 Vector   83  Occ=0.000000D+00  E= 9.512319D-01

 Vector   84  Occ=0.000000D+00  E= 9.621381D-01

 Vector   85  Occ=0.000000D+00  E= 9.700982D-01

 Vector   86  Occ=0.000000D+00  E= 9.838467D-01

 Vector   87  Occ=0.000000D+00  E= 1.001299D+00

 Vector   88  Occ=0.000000D+00  E= 1.015725D+00

 Vector   89  Occ=0.000000D+00  E= 1.022311D+00

 Vector   90  Occ=0.000000D+00  E= 1.037125D+00

 Vector   91  Occ=0.000000D+00  E= 1.047661D+00

 Vector   92  Occ=0.000000D+00  E= 1.062054D+00

 Vector   93  Occ=0.000000D+00  E= 1.096303D+00

 Vector   94  Occ=0.000000D+00  E= 1.107551D+00

 Vector   95  Occ=0.000000D+00  E= 1.135755D+00

 Vector   96  Occ=0.000000D+00  E= 1.172765D+00

 Vector   97  Occ=0.000000D+00  E= 1.185610D+00

 Vector   98  Occ=0.000000D+00  E= 1.231190D+00

 Vector   99  Occ=0.000000D+00  E= 1.261396D+00

 Vector  100  Occ=0.000000D+00  E= 1.275359D+00

 Vector  101  Occ=0.000000D+00  E= 1.309177D+00

 Vector  102  Occ=0.000000D+00  E= 1.398663D+00

 Vector  103  Occ=0.000000D+00  E= 1.440654D+00

 Vector  104  Occ=0.000000D+00  E= 1.503083D+00

 Vector  105  Occ=0.000000D+00  E= 1.527973D+00

 Vector  106  Occ=0.000000D+00  E= 1.748751D+00

 Vector  107  Occ=0.000000D+00  E= 1.810976D+00

 Vector  108  Occ=0.000000D+00  E= 1.897162D+00

 Vector  109  Occ=0.000000D+00  E= 1.960112D+00

 Vector  110  Occ=0.000000D+00  E= 2.013899D+00

     Multipole analysis of the density
     ---------------------------------

     L   x y z        total         alpha         beta         nuclear
     -   - - -        -----         -----         ----         -------
     0   0 0 0     -0.000000    -39.000000    -39.000000     78.000000

     1   1 0 0     -0.799763     -0.399881     -0.399881      0.000000
     1   0 1 0     -1.438056     -0.719028     -0.719028     -0.000000
     1   0 0 1     -1.551867     -0.775934     -0.775934     -0.000000

     2   2 0 0    -48.891470   -163.567795   -163.567795    278.244119
     2   1 1 0      4.740267     -1.097684     -1.097684      6.935636
     2   1 0 1     -4.745769     -0.381251     -0.381251     -3.983267
     2   0 2 0    -47.468977   -793.802742   -793.802742   1540.136507
     2   0 1 1     -2.924831     -1.688598     -1.688598      0.452364

 Total times  cpu:       82.9s     wall:       19.8s
