 Output coordinates in angstroms (scale by  1.889725989 to convert to a.u.)

  No.       Tag          Charge          X              Y              Z
 ---- ---------------- ---------- -------------- -------------- --------------
    1 C                    6.0000    -0.99401033     4.39680417    -0.00264715
    2 C                    6.0000    -1.69501866     3.21087960    -0.00314896
    3 C                    6.0000     1.02955882     3.21607868     0.00038840
    4 C                    6.0000     0.34293804     2.02473523    -0.00090972
    5 C                    6.0000    -1.03410501     1.98774344    -0.00068244
    6 O                    8.0000     0.17642577    -5.07426923     0.00160420
    7 C                    6.0000     0.38456121     4.43464985    -0.00116136
    8 O                    8.0000    -1.70837673     0.85821708    -0.00236623
    9 C                    6.0000     1.02403030     0.81265628     0.00080694
   10 F                    9.0000     1.01225509     5.63141438    -0.00135742
   11 O                    8.0000     2.28344268     0.79782283     0.00236070
   12 N                    7.0000     2.27976489    -4.17882885     0.00361680
   13 C                    6.0000    -1.18228257    -2.66347704    -0.00001972
   14 C                    6.0000     0.19205537    -2.74625881     0.00115903
   15 C                    6.0000     0.90338111    -1.56778368     0.00142204
   16 C                    6.0000     0.25932074    -0.33825320    -0.00000553
   17 C                    6.0000    -1.11836644    -0.31450521    -0.00029240
   18 N                    7.0000    -1.82445443    -1.46878083    -0.00153007
   19 N                    7.0000    -1.89040313    -3.89551974     0.00020873
   20 C                    6.0000     0.86974014    -4.02948565     0.00226918
   21 H                    1.0000    -1.53682616     5.34730281    -0.00319222
   22 H                    1.0000    -2.77608389     3.20204914    -0.00318271
   23 H                    1.0000     2.09346362     3.20356863     0.00010234
   24 H                    1.0000     2.90756408    -3.74480063     0.69874678
   25 H                    1.0000     2.69499845    -4.76015287    -0.74317197
   26 H                    1.0000     1.98637278    -1.59616951     0.00194274
   27 H                    1.0000    -2.38907505    -4.18863181     0.86503798
   28 H                    1.0000    -1.94781116    -4.54085667    -0.81599379

         Total DFT energy =     -989.257742915252

                       DFT Final Molecular Orbital Analysis
                       ------------------------------------

 Vector    1  Occ=2.000000D+00  E=-2.527766D+01

 Vector  117  Occ=0.000000D+00  E= 6.331033D-01

 Vector  118  Occ=0.000000D+00  E= 6.434018D-01

 Vector  119  Occ=0.000000D+00  E= 6.554334D-01

 Vector  120  Occ=0.000000D+00  E= 6.598028D-01

 Vector  121  Occ=0.000000D+00  E= 6.675073D-01

 Vector  122  Occ=0.000000D+00  E= 6.719094D-01

 Vector  123  Occ=0.000000D+00  E= 6.782615D-01

 Vector  124  Occ=0.000000D+00  E= 6.828233D-01

 Vector  125  Occ=0.000000D+00  E= 6.865309D-01

 Vector  126  Occ=0.000000D+00  E= 6.985197D-01

 Vector  127  Occ=0.000000D+00  E= 7.036868D-01

 Vector  128  Occ=0.000000D+00  E= 7.176207D-01

 Vector  129  Occ=0.000000D+00  E= 7.283200D-01

 Vector  130  Occ=0.000000D+00  E= 7.405147D-01

 Vector  131  Occ=0.000000D+00  E= 7.604807D-01

 Vector  132  Occ=0.000000D+00  E= 7.747739D-01

 Vector  133  Occ=0.000000D+00  E= 7.839052D-01

 Vector  134  Occ=0.000000D+00  E= 7.967200D-01

 Vector  135  Occ=0.000000D+00  E= 8.117612D-01

 Vector  136  Occ=0.000000D+00  E= 8.215028D-01

 Vector  137  Occ=0.000000D+00  E= 8.287770D-01

 Vector  138  Occ=0.000000D+00  E= 8.394998D-01

 Vector  139  Occ=0.000000D+00  E= 8.541089D-01

 Vector  140  Occ=0.000000D+00  E= 8.587660D-01

 Vector  141  Occ=0.000000D+00  E= 8.735313D-01

 Vector  142  Occ=0.000000D+00  E= 8.966336D-01

 Vector  143  Occ=0.000000D+00  E= 9.056476D-01

 Vector  144  Occ=0.000000D+00  E= 9.249636D-01

 Vector  145  Occ=0.000000D+00  E= 9.316857D-01

 Vector  146  Occ=0.000000D+00  E= 9.402148D-01

 Vector  147  Occ=0.000000D+00  E= 9.462975D-01

 Vector  148  Occ=0.000000D+00  E= 9.581276D-01

 Vector  149  Occ=0.000000D+00  E= 9.666577D-01

 Vector  150  Occ=0.000000D+00  E= 9.716759D-01

 Vector  151  Occ=0.000000D+00  E= 9.830645D-01

 Vector  152  Occ=0.000000D+00  E= 9.903621D-01

 Vector  153  Occ=0.000000D+00  E= 9.907466D-01

 Vector  154  Occ=0.000000D+00  E= 1.007185D+00

 Vector  155  Occ=0.000000D+00  E= 1.021849D+00

 Vector  156  Occ=0.000000D+00  E= 1.026017D+00

 Vector  157  Occ=0.000000D+00  E= 1.048516D+00

 Vector  158  Occ=0.000000D+00  E= 1.055002D+00

 Vector  159  Occ=0.000000D+00  E= 1.082500D+00

 Vector  160  Occ=0.000000D+00  E= 1.095211D+00

 Vector  161  Occ=0.000000D+00  E= 1.099545D+00

 Vector  162  Occ=0.000000D+00  E= 1.115241D+00

 Vector  163  Occ=0.000000D+00  E= 1.132677D+00

 Vector  164  Occ=0.000000D+00  E= 1.142374D+00

 Vector  165  Occ=0.000000D+00  E= 1.169744D+00

 Vector  166  Occ=0.000000D+00  E= 1.187473D+00

 Vector  167  Occ=0.000000D+00  E= 1.192735D+00

 Vector  168  Occ=0.000000D+00  E= 1.205776D+00

 Vector  169  Occ=0.000000D+00  E= 1.220850D+00

 Vector  170  Occ=0.000000D+00  E= 1.238693D+00

 Vector  171  Occ=0.000000D+00  E= 1.265142D+00

 Vector  172  Occ=0.000000D+00  E= 1.274633D+00

 Vector  173  Occ=0.000000D+00  E= 1.312787D+00

 Vector  174  Occ=0.000000D+00  E= 1.332541D+00

 Vector  175  Occ=0.000000D+00  E= 1.343321D+00

 Vector  176  Occ=0.000000D+00  E= 1.363754D+00

 Vector  177  Occ=0.000000D+00  E= 1.365026D+00

 Vector  178  Occ=0.000000D+00  E= 1.385934D+00

 Vector  179  Occ=0.000000D+00  E= 1.434130D+00

 Vector  180  Occ=0.000000D+00  E= 1.459577D+00

 Vector  181  Occ=0.000000D+00  E= 1.472272D+00

 Vector  182  Occ=0.000000D+00  E= 1.482010D+00

 Vector  183  Occ=0.000000D+00  E= 1.527564D+00

 Vector  184  Occ=0.000000D+00  E= 1.543492D+00

 Vector  185  Occ=0.000000D+00  E= 1.594059D+00

 Vector  186  Occ=0.000000D+00  E= 1.612613D+00

 Vector  187  Occ=0.000000D+00  E= 1.635692D+00

 Vector  188  Occ=0.000000D+00  E= 1.676931D+00

 Vector  189  Occ=0.000000D+00  E= 1.724987D+00

 Vector  190  Occ=0.000000D+00  E= 1.841035D+00

 Vector  191  Occ=0.000000D+00  E= 1.939648D+00

 Vector  192  Occ=0.000000D+00  E= 1.999066D+00

 Vector  193  Occ=0.000000D+00  E= 2.074115D+00

 Vector  194  Occ=0.000000D+00  E= 2.117768D+00

 Vector  195  Occ=0.000000D+00  E= 2.215705D+00

 Vector  196  Occ=0.000000D+00  E= 2.451076D+00

     Multipole analysis of the density
     ---------------------------------

     L   x y z        total         alpha         beta         nuclear
     -   - - -        -----         -----         ----         -------
     0   0 0 0     -0.000000    -70.000000    -70.000000    140.000000

     1   1 0 0     -0.075808     -0.037904     -0.037904      0.000000
     1   0 1 0      0.057654      0.028827      0.028827      0.000000
     1   0 0 1     -0.000208     -0.000104     -0.000104      0.000000

     2   2 0 0    -83.304232   -528.430695   -528.430695    973.557158
     2   1 1 0    -11.716034     15.558220     15.558220    -42.832473
     2   1 0 1     -0.751860      0.004265      0.004265     -0.760391
     2   0 2 0    -86.553144  -2692.811750  -2692.811750   5299.070357
     2   0 1 1      1.708960     -0.014037     -0.014037      1.737035

 Total times  cpu:      200.5s     wall:       75.1s
