 Output coordinates in angstroms (scale by  1.889725989 to convert to a.u.)

  No.       Tag          Charge          X              Y              Z
 ---- ---------------- ---------- -------------- -------------- --------------
    1 O                    8.0000     0.00000000     0.00000000    -0.11088957
    2 H                    1.0000     0.78348320     0.00000000     0.44355828
    3 H                    1.0000    -0.78348320     0.00000000     0.44355828

         Total DFT energy =      -76.349878565768

                       DFT Final Molecular Orbital Analysis
                       ------------------------------------

 Vector    1  Occ=2.000000D+00  E=-1.961993D+01  Symmetry=a1

 Vector    2  Occ=2.000000D+00  E=-1.129650D+00  Symmetry=a1

 Vector    3  Occ=2.000000D+00  E=-6.099168D-01  Symmetry=b1

 Vector    4  Occ=2.000000D+00  E=-4.287886D-01  Symmetry=a1

 Vector    5  Occ=2.000000D+00  E=-3.750809D-01  Symmetry=b2

 Vector    6  Occ=0.000000D+00  E= 1.094767D-01  Symmetry=a1

 Vector    7  Occ=0.000000D+00  E= 2.006950D-01  Symmetry=b1

 Vector    8  Occ=0.000000D+00  E= 9.009594D-01  Symmetry=b1

 Vector    9  Occ=0.000000D+00  E= 9.452082D-01  Symmetry=a1

 Vector   10  Occ=0.000000D+00  E= 9.731542D-01  Symmetry=b2

 Vector   11  Occ=0.000000D+00  E= 1.014315D+00  Symmetry=a1

 Vector   12  Occ=0.000000D+00  E= 1.152904D+00  Symmetry=b1

 Vector   13  Occ=0.000000D+00  E= 1.461237D+00  Symmetry=a1

     Multipole analysis of the density
     ---------------------------------

     L   x y z        total         alpha         beta         nuclear
     -   - - -        -----         -----         ----         -------
     0   0 0 0     -0.000000     -5.000000     -5.000000     10.000000

     1   1 0 0     -0.000000     -0.000000     -0.000000      0.000000
     1   0 1 0      0.000000      0.000000      0.000000      0.000000
     1   0 0 1      0.971916      0.485958      0.485958      0.000000

     2   2 0 0     -2.998920     -3.691543     -3.691543      4.384167
     2   1 1 0      0.000000      0.000000      0.000000      0.000000
     2   1 0 1     -0.000000     -0.000000     -0.000000      0.000000
     2   0 2 0     -5.355710     -2.677855     -2.677855      0.000000
     2   0 1 1      0.000000      0.000000      0.000000      0.000000

 Total times  cpu:        2.3s     wall:        0.4s
