 Output coordinates in angstroms (scale by  1.889725989 to convert to a.u.)

  No.       Tag          Charge          X              Y              Z
 ---- ---------------- ---------- -------------- -------------- --------------
    1 O                    8.0000     0.00000000     0.00000000    -0.11081412
    2 H                    1.0000     0.78344767     0.00000000     0.44325649
    3 H                    1.0000    -0.78344767     0.00000000     0.44325649

         Total DFT energy =      -76.349869161945

                       DFT Final Molecular Orbital Analysis
                       ------------------------------------

 Vector    1  Occ=2.000000D+00  E=-1.961986D+01  Symmetry=a1

 Vector    2  Occ=2.000000D+00  E=-1.129727D+00  Symmetry=a1

 Vector    3  Occ=2.000000D+00  E=-6.100824D-01  Symmetry=b1

 Vector    4  Occ=2.000000D+00  E=-4.287415D-01  Symmetry=a1

 Vector    5  Occ=2.000000D+00  E=-3.750834D-01  Symmetry=b2

 Vector    6  Occ=0.000000D+00  E= 1.095463D-01  Symmetry=a1

 Vector    7  Occ=0.000000D+00  E= 2.007742D-01  Symmetry=b1

 Vector    8  Occ=0.000000D+00  E= 9.012713D-01  Symmetry=b1

 Vector    9  Occ=0.000000D+00  E= 9.453695D-01  Symmetry=a1

 Vector   10  Occ=0.000000D+00  E= 9.731638D-01  Symmetry=b2

 Vector   11  Occ=0.000000D+00  E= 1.014216D+00  Symmetry=a1

 Vector   12  Occ=0.000000D+00  E= 1.152986D+00  Symmetry=b1

 Vector   13  Occ=0.000000D+00  E= 1.461175D+00  Symmetry=a1

     Multipole analysis of the density
     ---------------------------------

     L   x y z        total         alpha         beta         nuclear
     -   - - -        -----         -----         ----         -------
     0   0 0 0     -0.000000     -5.000000     -5.000000     10.000000

     1   1 0 0     -0.000000     -0.000000     -0.000000      0.000000
     1   0 1 0      0.000000      0.000000      0.000000      0.000000
     1   0 0 1      0.971685      0.485843      0.485843      0.000000

     2   2 0 0     -2.998096     -3.690932     -3.690932      4.383769
     2   1 1 0      0.000000      0.000000      0.000000      0.000000
     2   1 0 1      0.000000      0.000000      0.000000      0.000000
     2   0 2 0     -5.355329     -2.677665     -2.677665      0.000000
     2   0 1 1      0.000000      0.000000      0.000000      0.000000

 Total times  cpu:        3.3s     wall:        0.9s
