 Output coordinates in angstroms (scale by  1.889725989 to convert to a.u.)

  No.       Tag          Charge          X              Y              Z
 ---- ---------------- ---------- -------------- -------------- --------------
    1 O                    8.0000     0.00000000     0.00000000    -0.11089939
    2 H                    1.0000    -0.78387898     0.00000000     0.44359757
    3 H                    1.0000     0.78387898     0.00000000     0.44359757

         Total DFT energy =      -76.349894589343

                       DFT Final Molecular Orbital Analysis
                       ------------------------------------

 Vector    1  Occ=2.000000D+00  E=-1.961997D+01  Symmetry=a1

 Vector    2  Occ=2.000000D+00  E=-1.129458D+00  Symmetry=a1

 Vector    3  Occ=2.000000D+00  E=-6.097886D-01  Symmetry=b1

 Vector    4  Occ=2.000000D+00  E=-4.287215D-01  Symmetry=a1

 Vector    5  Occ=2.000000D+00  E=-3.750460D-01  Symmetry=b2

 Vector    6  Occ=0.000000D+00  E= 1.093852D-01  Symmetry=a1

 Vector    7  Occ=0.000000D+00  E= 2.005970D-01  Symmetry=b1

 Vector    8  Occ=0.000000D+00  E= 9.009108D-01  Symmetry=b1

 Vector    9  Occ=0.000000D+00  E= 9.446926D-01  Symmetry=a1

 Vector   10  Occ=0.000000D+00  E= 9.731642D-01  Symmetry=b2

 Vector   11  Occ=0.000000D+00  E= 1.014311D+00  Symmetry=a1

 Vector   12  Occ=0.000000D+00  E= 1.152867D+00  Symmetry=b1

 Vector   13  Occ=0.000000D+00  E= 1.461135D+00  Symmetry=a1

     Multipole analysis of the density
     ---------------------------------

     L   x y z        total         alpha         beta         nuclear
     -   - - -        -----         -----         ----         -------
     0   0 0 0     -0.000000     -5.000000     -5.000000     10.000000

     1   1 0 0     -0.000000     -0.000000     -0.000000      0.000000
     1   0 1 0      0.000000      0.000000      0.000000      0.000000
     1   0 0 1      0.971771      0.485885      0.485885      0.000000

     2   2 0 0     -2.997647     -3.693122     -3.693122      4.388597
     2   1 1 0      0.000000      0.000000      0.000000      0.000000
     2   1 0 1      0.000000      0.000000      0.000000      0.000000
     2   0 2 0     -5.356287     -2.678143     -2.678143      0.000000
     2   0 1 1      0.000000      0.000000      0.000000      0.000000

 Total times  cpu:        2.5s     wall:        0.5s
