 Output coordinates in angstroms (scale by  1.889725989 to convert to a.u.)

  No.       Tag          Charge          X              Y              Z
 ---- ---------------- ---------- -------------- -------------- --------------
    1 C                    6.0000    -0.09406832     0.48204540     0.00039389
    2 O                    8.0000    -0.03888375    -1.85934992    -0.00039753
    3 O                    8.0000    -1.34166904     0.40489684     0.00162674
    4 O                    8.0000     0.62728453    -0.70065339    -0.00218300
    5 C                    6.0000     0.60197179     1.77631963    -0.00079034
    6 H                    1.0000     0.67071205    -2.57547415     0.00550830
    7 H                    1.0000     1.32912056     1.77126162     0.85990827
    8 H                    1.0000    -0.12154301     2.59824709     0.11676208
    9 H                    1.0000     1.10043566     1.89662707    -0.97216971

         Total DFT energy =     -303.939080818231

                       DFT Final Molecular Orbital Analysis
                       ------------------------------------

 Vector    1  Occ=2.000000D+00  E=-1.973429D+01

 Vector    2  Occ=2.000000D+00  E=-1.971579D+01

 Vector    3  Occ=2.000000D+00  E=-1.963513D+01

 Vector    4  Occ=2.000000D+00  E=-1.070508D+01

 Vector    5  Occ=2.000000D+00  E=-1.057760D+01

 Vector    6  Occ=2.000000D+00  E=-1.348555D+00

 Vector    7  Occ=2.000000D+00  E=-1.175785D+00

 Vector    8  Occ=2.000000D+00  E=-1.044860D+00

 Vector    9  Occ=2.000000D+00  E=-8.670519D-01

 Vector   10  Occ=2.000000D+00  E=-6.995755D-01

 Vector   11  Occ=2.000000D+00  E=-6.252071D-01

 Vector   12  Occ=2.000000D+00  E=-5.843328D-01

 Vector   13  Occ=2.000000D+00  E=-5.774696D-01

 Vector   14  Occ=2.000000D+00  E=-5.168783D-01

 Vector   15  Occ=2.000000D+00  E=-5.137593D-01

 Vector   16  Occ=2.000000D+00  E=-4.872877D-01

 Vector   17  Occ=2.000000D+00  E=-4.236684D-01

 Vector   18  Occ=2.000000D+00  E=-4.189821D-01

 Vector   19  Occ=2.000000D+00  E=-3.470739D-01

 Vector   20  Occ=2.000000D+00  E=-3.370604D-01

 Vector   21  Occ=0.000000D+00  E= 3.662028D-02

 Vector   22  Occ=0.000000D+00  E= 7.274519D-02

 Vector   23  Occ=0.000000D+00  E= 1.320333D-01

 Vector   24  Occ=0.000000D+00  E= 1.490581D-01

 Vector   25  Occ=0.000000D+00  E= 1.976250D-01

 Vector   26  Occ=0.000000D+00  E= 2.015558D-01

 Vector   27  Occ=0.000000D+00  E= 2.536197D-01

 Vector   28  Occ=0.000000D+00  E= 3.194896D-01

 Vector   29  Occ=0.000000D+00  E= 3.895136D-01

 Vector   30  Occ=0.000000D+00  E= 5.779931D-01

 Vector   31  Occ=0.000000D+00  E= 6.026592D-01

 Vector   32  Occ=0.000000D+00  E= 6.413894D-01

 Vector   33  Occ=0.000000D+00  E= 6.538551D-01

 Vector   34  Occ=0.000000D+00  E= 6.709177D-01

 Vector   35  Occ=0.000000D+00  E= 7.149372D-01

 Vector   36  Occ=0.000000D+00  E= 8.185406D-01

 Vector   37  Occ=0.000000D+00  E= 8.402804D-01

 Vector   38  Occ=0.000000D+00  E= 9.450093D-01

 Vector   39  Occ=0.000000D+00  E= 9.482399D-01

 Vector   40  Occ=0.000000D+00  E= 9.606121D-01

 Vector   41  Occ=0.000000D+00  E= 9.857992D-01

 Vector   42  Occ=0.000000D+00  E= 1.005301D+00

 Vector   43  Occ=0.000000D+00  E= 1.037318D+00

 Vector   44  Occ=0.000000D+00  E= 1.044137D+00

 Vector   45  Occ=0.000000D+00  E= 1.083809D+00

 Vector   46  Occ=0.000000D+00  E= 1.133238D+00

 Vector   47  Occ=0.000000D+00  E= 1.146883D+00

 Vector   48  Occ=0.000000D+00  E= 1.239313D+00

 Vector   49  Occ=0.000000D+00  E= 1.377259D+00

 Vector   50  Occ=0.000000D+00  E= 1.486426D+00

 Vector   51  Occ=0.000000D+00  E= 1.615661D+00

 Vector   52  Occ=0.000000D+00  E= 1.839237D+00

 Vector   53  Occ=0.000000D+00  E= 1.888648D+00

     Multipole analysis of the density
     ---------------------------------

     L   x y z        total         alpha         beta         nuclear
     -   - - -        -----         -----         ----         -------
     0   0 0 0     -0.000000    -20.000000    -20.000000     40.000000

     1   1 0 0      1.506375      0.753187      0.753187     -0.000000
     1   0 1 0      0.097354      0.048677      0.048677      0.000000
     1   0 0 1     -0.009401     -0.004700     -0.004700     -0.000000

     2   2 0 0    -24.785304    -53.870653    -53.870653     82.956002
     2   1 1 0     -1.436952     -2.965114     -2.965114      4.493277
     2   1 0 1      0.029448     -0.041067     -0.041067      0.111581
     2   0 2 0    -14.114800   -138.009939   -138.009939    261.905078
     2   0 1 1     -0.101786     -0.023402     -0.023402     -0.054981

 Total times  cpu:       25.7s     wall:        4.5s
